<?xml version="1.0"?>
<VTKFile type="UnstructuredGrid">
<UnstructuredGrid>
<Piece NumberOfPoints="       8" NumberOfCells="       1">
<Points>
<DataArray NumberOfComponents="3" format="ascii" type="Float32">
-32058.938**********    -2.025
-31237.615**********    -2.025
-31237.615**********    -2.025
-32058.938**********    -2.025
-32058.938**********   130.998
-31237.615**********   130.998
-31237.615**********   130.998
-32058.938**********   130.998
</DataArray>
</Points>
<Cells>
<DataArray Name="connectivity" format="ascii" type="Int32">
 0 1 2 3 4 5 6 7
</DataArray>
<DataArray Name="offsets" format="ascii" type="Int32">
8
</DataArray>
<DataArray Name="types" format="ascii" type="UInt8">
12
</DataArray>
</Cells>
<CellData>
<DataArray Name="id" NumberOfComponents="1" format="ascii" type="Int32">
1
</DataArray>
</CellData>
</Piece>
</UnstructuredGrid>
</VTKFile>
